# ODT 1.0
# Table Start
# Title: mmArchive Data Table, Tue Aug 08 12:31:52 BST 2023
# Columns: {Oxs_RungeKuttaEvolve:evolver:Total energy} {Oxs_RungeKuttaEvolve:evolver:Energy calc count} {Oxs_RungeKuttaEvolve:evolver:Max dm/dt} Oxs_RungeKuttaEvolve:evolver:dE/dt {Oxs_RungeKuttaEvolve:evolver:Delta E} Oxs_UniformExchange:exchange:Energy {Oxs_UniformExchange:exchange:Max Spin Ang} {Oxs_UniformExchange:exchange:Stage Max Spin Ang} {Oxs_UniformExchange:exchange:Run Max Spin Ang} Oxs_DMI_Cnv_z:dmi:Energy Oxs_UniaxialAnisotropy:uniaxialanisotropy:Energy Oxs_Demag:demag:Energy Oxs_FixedZeeman:zeeman:Energy Oxs_TimeDriver::Iteration {Oxs_TimeDriver::Stage iteration} Oxs_TimeDriver::Stage Oxs_TimeDriver::mx   Oxs_TimeDriver::my   Oxs_TimeDriver::mz   {Oxs_TimeDriver::Last time step} {Oxs_TimeDriver::Simulation time}
# Units:                        J                                             {}                                         deg/ns                                 J/s                                   J                                     J                                      deg                                            deg                                              deg                                  J                                    J                                   J                          J                          {}                            {}                          {}                   {}                   {}                   {}                          s                                 s                
                       5.1547064991299997e-17                            1                                            0                                     0                                    0                                    2.0479999999999999e-17                     180                                            180                                              180                                  0                                    0                                   5.69160893451e-17        -2.5849024353700001e-17         0                             0                           0                     0                    0                    0.93500000000000005        0                                0                         
# Table End
