# ODT 1.0
# Table Start
# Title: mmArchive Data Table, Thu Aug 03 20:29:55 BST 2023
# Columns: {Oxs_CGEvolve:evolver:Max mxHxm} {Oxs_CGEvolve:evolver:Total energy} {Oxs_CGEvolve:evolver:Delta E} {Oxs_CGEvolve:evolver:Bracket count} {Oxs_CGEvolve:evolver:Line min count} {Oxs_CGEvolve:evolver:Conjugate cycle count} {Oxs_CGEvolve:evolver:Cycle count} {Oxs_CGEvolve:evolver:Cycle sub count} {Oxs_CGEvolve:evolver:Energy calc count} Oxs_UniformExchange:exchange:Energy {Oxs_UniformExchange:exchange:Max Spin Ang} {Oxs_UniformExchange:exchange:Stage Max Spin Ang} {Oxs_UniformExchange:exchange:Run Max Spin Ang} Oxs_DMI_Cnv_z:dmi:Energy Oxs_UniaxialAnisotropy:uniaxialanisotropy:Energy Oxs_Demag:demag:Energy Oxs_FixedZeeman:zeeman:Energy Oxs_MinDriver::Iteration {Oxs_MinDriver::Stage iteration} Oxs_MinDriver::Stage Oxs_MinDriver::mx    Oxs_MinDriver::my    Oxs_MinDriver::mz   
# Units:                 A/m                                 J                                J                                 {}                                   {}                                        {}                                      {}                                   {}                                      {}                                     J                                      deg                                            deg                                              deg                                  J                                    J                                   J                          J                          {}                           {}                         {}                 {}                   {}                   {}           
                  0.093036000657500006               2.4683514836300001e-17               0                                 194                                  150                                       19                                      173                                  128                                     345                                   9.0463183626700003e-18                     25.091547791299998                             180                                              180                                 -2.4524644903399999e-17                  1.1103025372e-17                    4.7362094690700001e-17      -1.8303278685600001e-17         330                          330                        0                   -1.3625884259299999e-17 -4.8682770945799997e-17  0.66205847218199998
# Table End
