# ODT 1.0
# Table Start
# Title: mmArchive Data Table, Sun Aug 13 15:17:14 BST 2023
# Columns: {Oxs_CGEvolve:evolver:Max mxHxm} {Oxs_CGEvolve:evolver:Total energy} {Oxs_CGEvolve:evolver:Delta E} {Oxs_CGEvolve:evolver:Bracket count} {Oxs_CGEvolve:evolver:Line min count} {Oxs_CGEvolve:evolver:Conjugate cycle count} {Oxs_CGEvolve:evolver:Cycle count} {Oxs_CGEvolve:evolver:Cycle sub count} {Oxs_CGEvolve:evolver:Energy calc count} Oxs_UniformExchange:exchange:Energy {Oxs_UniformExchange:exchange:Max Spin Ang} {Oxs_UniformExchange:exchange:Stage Max Spin Ang} {Oxs_UniformExchange:exchange:Run Max Spin Ang} Oxs_DMI_D2d_z:dmi:Energy Oxs_UniaxialAnisotropy:uniaxialanisotropy:Energy Oxs_Demag:demag:Energy Oxs_FixedZeeman:zeeman:Energy Oxs_MinDriver::Iteration {Oxs_MinDriver::Stage iteration} Oxs_MinDriver::Stage Oxs_MinDriver::mx    Oxs_MinDriver::my    Oxs_MinDriver::mz   
# Units:                 A/m                                 J                                J                                 {}                                   {}                                        {}                                      {}                                   {}                                      {}                                     J                                      deg                                            deg                                              deg                                  J                                    J                                   J                          J                          {}                           {}                         {}                 {}                   {}                   {}           
                  0.0892470956713                   1.90631280988e-17                -3.0814879110200002e-33               290                                  231                                       23                                      260                                  205                                     522                                   2.77070581835e-17                       26.788964822099999                             180                                              180                                 -6.3132389911500003e-17                  3.1485754298299998e-17                 5.3370577612600002e-17      -3.0367872084199998e-17         500                          500                        0                    1.7855034622499999e-17  2.6334005683200001e-18  0.54922692652100003
# Table End
